                         Program Version 5.0.3 -  RELEASE  -
|  1> !HF DEF2-SVP OPT FREQ
|  2> * xyz 0 1
|  3> O   0.0000   0.0000   0.0626
|  4> H  -0.7920   0.0000  -0.4973
|  5> H   0.7920   0.0000  -0.4973
|  6> **                         ****END OF INPUT****
 Total Charge           Charge          ....    0
 Multiplicity           Mult            ....    1
 Number of Electrons    NEL             ....   10
FINAL SINGLE POINT ENERGY       -75.959340313471
FINAL SINGLE POINT ENERGY       -75.961211188467
FINAL SINGLE POINT ENERGY       -75.961317737912
FINAL SINGLE POINT ENERGY       -75.961338256388
FINAL SINGLE POINT ENERGY       -75.961338492537
                    ***********************HURRAY********************

CARTESIAN COORDINATES (ANGSTROEM)
---------------------------------
  O      0.000000    0.000000    0.072263
  H     -0.750346    0.000000   -0.502132
  H      0.750346    0.000000   -0.502132

 Multiplicity           Mult            ....    1
 Number of Electrons    NEL             ....   10
 Basis Dimension        Dim             ....   24

ORBITAL ENERGIES
----------------

  NO   OCC          E(Eh)            E(eV)
   0   2.0000     -20.543424      -559.0150
   1   2.0000      -1.324872       -36.0516
   2   2.0000      -0.711536       -19.3619
   3   2.0000      -0.569235       -15.4897
   4   2.0000      -0.498842       -13.5742
   5   0.0000       0.178230         4.8499
   6   0.0000       0.257095         6.9959
   7   0.0000       0.806481        21.9455
   8   0.0000       0.879486        23.9320
   9   0.0000       1.183806        32.2130

MULLIKEN ATOMIC CHARGES
-----------------------
   0 O :   -0.334420
   1 H :    0.167210
   2 H :    0.167210
Sum of atomic charges:   -0.0000000

LOEWDIN ATOMIC CHARGES
----------------------
   0 O :   -0.141266
   1 H :    0.070633
   2 H :    0.070633

  Mayer bond orders larger than 0.100000
B(  0-O ,  1-H ) :   1.0021 B(  0-O ,  2-H ) :   1.0021

FINAL SINGLE POINT ENERGY       -75.961338493690

DIPOLE MOMENT
-------------
                                X             Y             Z
Electronic contribution:      0.00000      -0.00000       0.12622
Nuclear contribution   :     -0.00000       0.00000      -0.95621
                        -----------------------------------------
Total Dipole Moment    :     -0.00000      -0.00000      -0.82999
                        -----------------------------------------
Magnitude (a.u.)       :      0.82999
Magnitude (Debye)      :      2.10967

VIBRATIONAL FREQUENCIES
-----------------------

Scaling factor for frequencies =  1.000000000  (already applied!)

   0:         0.00 cm**-1
   1:         0.00 cm**-1
   2:         0.00 cm**-1
   3:         0.00 cm**-1
   4:         0.00 cm**-1
   5:         0.00 cm**-1
   6:      1750.37 cm**-1
   7:      4148.46 cm**-1
   8:      4244.70 cm**-1

IR SPECTRUM
-----------

 Mode   freq       eps      Int      T**2         TX        TY        TZ
       cm**-1   L/(mol*cm) km/mol    a.u.
----------------------------------------------------------------------------
  6:   1750.37   0.016353   82.64  0.002915  ( 0.000000  0.000000  0.053994)
  7:   4148.46   0.005313   26.85  0.000400  (-0.000000  0.000000  0.019992)
  8:   4244.70   0.014722   74.40  0.001082  (-0.032899 -0.000000  0.000000)

--------------------------
THERMOCHEMISTRY AT 298.15K
--------------------------

Temperature         ... 298.15 K
Pressure            ... 1.00 atm
Total Mass          ... 18.02 AMU

Throughout the following assumptions are being made:
  (1) The electronic state is orbitally nondegenerate
  (2) There are no thermally accessible electronically excited states
  (3) Hindered rotations indicated by low frequency modes are not
      treated as such but are treated as vibrations and this may
      cause some error
  (4) All equations used are the standard statistical mechanics
      equations for an ideal gas
  (5) All vibrations are strictly harmonic

freq.    1750.37  E(vib)   ...       0.00
freq.    4148.46  E(vib)   ...       0.00
freq.    4244.70  E(vib)   ...       0.00

------------
INNER ENERGY
------------

The inner energy is: U= E(el) + E(ZPE) + E(vib) + E(rot) + E(trans)
    E(el)   - is the total energy from the electronic structure calculation
              = E(kin-el) + E(nuc-el) + E(el-el) + E(nuc-nuc)
    E(ZPE)  - the the zero temperature vibrational energy from the frequency calculation
    E(vib)  - the the finite temperature correction to E(ZPE) due to population
              of excited vibrational states
    E(rot)  - is the rotational thermal energy
    E(trans)- is the translational thermal energy

Summary of contributions to the inner energy U:
Electronic energy                ...    -75.96133849 Eh
Zero point energy                ...      0.02310867 Eh      14.50 kcal/mol
Thermal vibrational correction   ...      0.00000171 Eh       0.00 kcal/mol
Thermal rotational correction    ...      0.00141627 Eh       0.89 kcal/mol
Thermal translational correction ...      0.00141627 Eh       0.89 kcal/mol
-----------------------------------------------------------------------
Total thermal energy                    -75.93539557 Eh

Summary of corrections to the electronic energy:
(perhaps to be used in another calculation)
Total thermal correction                  0.00283426 Eh       1.78 kcal/mol
Non-thermal (ZPE) correction              0.02310867 Eh      14.50 kcal/mol
-----------------------------------------------------------------------
Total correction                          0.02594292 Eh      16.28 kcal/mol

--------
ENTHALPY
--------

The enthalpy is H = U + kB*T
                kB is Boltzmann's constant
Total free energy                 ...    -75.93539557 Eh
Thermal Enthalpy correction       ...      0.00094421 Eh       0.59 kcal/mol
-----------------------------------------------------------------------
Total Enthalpy                    ...    -75.93445136 Eh

Note: Rotational entropy computed according to Herzberg
Infrared and Raman Spectra, Chapter V,1, Van Nostrand Reinhold, 1945
Point Group:  C2v, Symmetry Number:   2
Rotational constants in cm-1:    28.538202    14.851934     9.768292

Vibrational entropy computed according to the QRRHO of S. Grimme
Chem.Eur.J. 2012 18 9955

-------
ENTROPY
-------

The entropy contributions are T*S = T*(S(el)+S(vib)+S(rot)+S(trans))
     S(el)   - electronic entropy
     S(vib)  - vibrational entropy
     S(rot)  - rotational entropy
     S(trans)- translational entropy
The entropies will be listed as multiplied by the temperature to get
units of energy

Electronic entropy                ...      0.00000000 Eh      0.00 kcal/mol
Vibrational entropy               ...      0.00000191 Eh      0.00 kcal/mol
Rotational entropy                ...      0.00492454 Eh      3.09 kcal/mol
Translational entropy             ...      0.01644380 Eh     10.32 kcal/mol
-----------------------------------------------------------------------
Final entropy term                ...      0.02137026 Eh     13.41 kcal/mol

In case the symmetry of your molecule has not been determined correctly
or in case you have a reason to use a different symmetry number we print
out the resulting rotational entropy values for sn=1,12 :
 --------------------------------------------------------
|  sn= 1 | S(rot)=       0.00557900 Eh      3.50 kcal/mol|
|  sn= 2 | S(rot)=       0.00492454 Eh      3.09 kcal/mol|
|  sn= 3 | S(rot)=       0.00454171 Eh      2.85 kcal/mol|
|  sn= 4 | S(rot)=       0.00427008 Eh      2.68 kcal/mol|
|  sn= 5 | S(rot)=       0.00405940 Eh      2.55 kcal/mol|
|  sn= 6 | S(rot)=       0.00388725 Eh      2.44 kcal/mol|
|  sn= 7 | S(rot)=       0.00374171 Eh      2.35 kcal/mol|
|  sn= 8 | S(rot)=       0.00361563 Eh      2.27 kcal/mol|
|  sn= 9 | S(rot)=       0.00350442 Eh      2.20 kcal/mol|
|  sn=10 | S(rot)=       0.00340494 Eh      2.14 kcal/mol|
|  sn=11 | S(rot)=       0.00331495 Eh      2.08 kcal/mol|
|  sn=12 | S(rot)=       0.00323280 Eh      2.03 kcal/mol|
 --------------------------------------------------------

-------------------
GIBBS FREE ENERGY
-------------------

The Gibbs free energy is G = H - T*S

Total enthalpy                    ...    -75.93445136 Eh
Total entropy correction          ...     -0.02137026 Eh    -13.41 kcal/mol
-----------------------------------------------------------------------
Final Gibbs free energy         ...    -75.95582162 Eh

For completeness - the Gibbs free energy minus the electronic energy
G-E(el)                           ...      0.00551687 Eh      3.46 kcal/mol

                             ****ORCA TERMINATED NORMALLY****
TOTAL RUN TIME: 0 days 0 hours 0 minutes 4 seconds 913 msec
